version 3
run freespace-0-20230830-13:08:37-296406
attr configname freespace
attr datetime 20230830-13:08:37
attr datetimef 20230830-130837
attr experiment freespace
attr inifile omnetpp.ini
attr iterationvars ""
attr iterationvarsd ""
attr iterationvarsf ""
attr measurement ""
attr network inet.examples.opal.OpalTest
attr processid 296406
attr repetition 0
attr replication #0
attr resultdir freespace
attr runnumber 0
attr seedset 0
config image-path ../../images
config sim-time-limit 1s
config result-dir freespace
config *.*.mobility.initFromDisplayString false
config *.node[0].generatorType "\"inet.veneris.opal.test.OpalTest\""
config *.node[1].mobilityType "\"StationaryMobility\""
config *.node[0].mobilityType "\"LinearMobility\""
config *.node[0].mobility.initialMovementHeading 0deg
config *.node[0].mobility.speed 10mps
config *.node[0].mobility.updateDisplayString false
config *.node[1].generatorType "\"inet.veneris.opal.test.OpalTestPeriodicGenerator\""
config *.node[0].initialX 0m
config *.node[1].initialX 10m
config *.node[*].initialZ 0m
config *.node[*].initialY 10m
config *.radioMedium.typename inet.veneris.opal.OpalRadioMedium
config *.radioMedium.useJson false
config check-signals false
config *.radioMedium.useExtendedCallback true
config *.radioMedium.isStatic true
config network inet.examples.opal.OpalTest
config sim-time-limit 0.2s
config *.node[*].wlan.bitrate 6Mbps
config *.node[*].wlan.mac.dcf.rateSelection.multicastFrameBitrate 6Mbps
config *.node[*].wlan.mac.dcf.rateSelection.dataFrameBitrate 6Mbps
config *.node[*].wlan.mac.dcf.rateSelection.dataFrameBandwidth 20MHz
config *.*.wlan.mac.dcf.channelAccess.contention.initialChannelBusy false
config *.*.wlan.radio.bandName "\"5.9 GHz\""
config *.node[*].wlan.radio.centerFrequency 5.9GHz
config *.radioMedium.mediumLimitCache.centerFrequency 5.9GHz
config *.radioMedium.mediumLimitCache.maxTransmissionDuration 0.5s
config *.node[*].wlan.radio.transmitter.power 1W

vector 0 OpalTest.node[0].wlan.mac.dcf frameSequenceActive:vector ETV
attr autoWarmupFilter false
attr interpolationmode sample-hold
attr recordingmode vector
attr source warmup(count(frameSequenceStarted)-count(frameSequenceFinished))
attr title "frame sequence active"
vector 1 OpalTest.node[0].wlan.mac.dcf.channelAccess.inProgressFrames queueLength:vector ETV
attr autoWarmupFilter false
attr interpolationmode sample-hold
attr recordingmode vector
attr source "warmup(count(packetEnqueued) - count(packetDequeued))"
attr title "queue length"
vector 2 OpalTest.node[0].wlan.mac.dcf.channelAccess.contention backoffActive:vector ETV
attr autoWarmupFilter false
attr interpolationmode sample-hold
attr recordingmode vector
attr source warmup(count(backoffStarted)-count(backoffStopped))
attr title "backoff active"
vector 3 OpalTest.node[1].wlan.mac.dcf frameSequenceActive:vector ETV
attr autoWarmupFilter false
attr interpolationmode sample-hold
attr recordingmode vector
attr source warmup(count(frameSequenceStarted)-count(frameSequenceFinished))
attr title "frame sequence active"
vector 4 OpalTest.node[1].wlan.mac.dcf.channelAccess.inProgressFrames queueLength:vector ETV
attr autoWarmupFilter false
attr interpolationmode sample-hold
attr recordingmode vector
attr source "warmup(count(packetEnqueued) - count(packetDequeued))"
attr title "queue length"
vector 5 OpalTest.node[1].wlan.mac.dcf.channelAccess.contention backoffActive:vector ETV
attr autoWarmupFilter false
attr interpolationmode sample-hold
attr recordingmode vector
attr source warmup(count(backoffStarted)-count(backoffStopped))
attr title "backoff active"
vector 6 OpalTest.node[0].wlan.radio radioMode:vector ETV
attr interpolationmode sample-hold
attr recordingmode vector
attr source radioModeChanged
attr title "Radio mode"
vector 7 OpalTest.node[0].wlan.radio radioChannel:vector ETV
attr interpolationmode sample-hold
attr recordingmode vector
attr source radioChannelChanged
attr title "Radio channel"
vector 8 OpalTest.node[1].wlan.radio radioMode:vector ETV
attr interpolationmode sample-hold
attr recordingmode vector
attr source radioModeChanged
attr title "Radio mode"
vector 9 OpalTest.node[1].wlan.radio radioChannel:vector ETV
attr interpolationmode sample-hold
attr recordingmode vector
attr source radioChannelChanged
attr title "Radio channel"
vector 10 OpalTest.node[0] x:vector ETV
attr recordingmode vector
attr source xCoord(mobilityPos(mobility.mobilityStateChanged))
vector 11 OpalTest.node[0] y:vector ETV
attr recordingmode vector
attr source yCoord(mobilityPos(mobility.mobilityStateChanged))
vector 12 OpalTest.node[0] z:vector ETV
attr recordingmode vector
attr source zCoord(mobilityPos(mobility.mobilityStateChanged))
vector 13 OpalTest.node[1] x:vector ETV
attr recordingmode vector
attr source xCoord(mobilityPos(mobility.mobilityStateChanged))
vector 14 OpalTest.node[1] y:vector ETV
attr recordingmode vector
attr source yCoord(mobilityPos(mobility.mobilityStateChanged))
vector 15 OpalTest.node[1] z:vector ETV
attr recordingmode vector
attr source zCoord(mobilityPos(mobility.mobilityStateChanged))
vector 16 OpalTest.node[0].wlan.radio receptionState:vector ETV
attr interpolationmode sample-hold
attr recordingmode vector
attr source receptionStateChanged
attr title "Radio reception state"
vector 17 OpalTest.node[0].wlan.mac.dcf.channelAccess.contention stateChanged:vector ETV
attr enum IDLE,DEFER,IFS_AND_BACKOFF
attr interpolationmode none
attr recordingmode vector
attr title "contention state changed"
attr type enum
vector 18 OpalTest.node[1].wlan.radio receptionState:vector ETV
attr interpolationmode sample-hold
attr recordingmode vector
attr source receptionStateChanged
attr title "Radio reception state"
vector 19 OpalTest.node[1].wlan.mac.dcf.channelAccess.contention stateChanged:vector ETV
attr enum IDLE,DEFER,IFS_AND_BACKOFF
attr interpolationmode none
attr recordingmode vector
attr title "contention state changed"
attr type enum
vector 20 OpalTest.node[0].wlan.mac.dcf.recoveryProcedure contentionWindowChanged:vector ETV
attr interpolationmode sample-hold
attr recordingmode vector
attr title "contention window"
vector 21 OpalTest.node[1].wlan.mac.dcf.recoveryProcedure contentionWindowChanged:vector ETV
attr interpolationmode sample-hold
attr recordingmode vector
attr title "contention window"
vector 22 OpalTest.node[1].wlan.mac packetReceivedFromUpper:vector(packetBytes) ETV
attr interpolationmode none
attr recordingmode vector(packetBytes)
attr title "packets received from upper layer, packetBytes"
vector 23 OpalTest.node[1].wlan.mac.dcf.channelAccess.pendingQueue incomingPacketLengths:vector ETV
attr interpolationmode none
attr recordingmode vector
attr source packetLength(packetPushStarted)
attr title "incoming packet lengths"
attr unit b
vector 24 OpalTest.node[1].wlan.mac.dcf.channelAccess.pendingQueue incomingDataRate:vector ETV
attr interpolationmode linear
attr recordingmode vector
attr source throughput(packetPushStarted)
attr title "incoming datarate"
attr unit bps
vector 25 OpalTest.node[1].wlan.mac.dcf.channelAccess.pendingQueue queueLength:vector ETV
attr autoWarmupFilter false
attr interpolationmode sample-hold
attr recordingmode vector
attr source "warmup(atomic(constant0(packetPushEnded) + count(packetPushStarted) - count(packetPulled) - count(packetRemoved) - count(packetDropped)))"
attr title "queue length"
attr unit pk
vector 26 OpalTest.node[1].wlan.mac.dcf.channelAccess.pendingQueue queueBitLength:vector ETV
attr autoWarmupFilter false
attr interpolationmode sample-hold
attr recordingmode vector
attr source "warmup(atomic(constant0(packetPushEnded) + sum(packetLength(packetPushStarted)) - sum(packetLength(packetPulled)) - sum(packetLength(packetRemoved)) - sum(packetLength(packetDropped))))"
attr title "queue bit length"
attr unit b
vector 27 OpalTest.node[1].wlan.mac.dcf.channelAccess.contention backoffPeriodGenerated:vector ETV
attr interpolationmode none
attr recordingmode vector
attr title "backoff periods"
vector 28 OpalTest.node[1].wlan.mac.dcf.channelAccess.pendingQueue queueingTime:vector ETV
attr interpolationmode none
attr recordingmode vector
attr source queueingTime(packetPulled)
attr title "queueing times"
attr unit s
vector 29 OpalTest.node[1].wlan.mac.dcf.channelAccess.pendingQueue outgoingPacketLengths:vector ETV
attr interpolationmode none
attr recordingmode vector
attr source packetLength(packetPulled)
attr title "outgoing packet lengths"
attr unit b
vector 30 OpalTest.node[1].wlan.mac.dcf.channelAccess.pendingQueue outgoingDataRate:vector ETV
attr interpolationmode linear
attr recordingmode vector
attr source throughput(packetPulled)
attr title "outgoing datarate"
attr unit bps
vector 31 OpalTest.node[1].wlan.mac.dcf datarateSelected:vector ETV
attr interpolationmode none
attr recordingmode vector
attr title "datarates selected"
vector 32 OpalTest.node[1].wlan.mac packetSentToLower:vector(packetBytes) ETV
attr interpolationmode none
attr recordingmode vector(packetBytes)
attr title "packets sent to lower layer, packetBytes"
vector 33 OpalTest.node[1].wlan.radio transmissionState:vector ETV
attr interpolationmode sample-hold
attr recordingmode vector
attr source transmissionStateChanged
attr title "Radio transmission state"
vector 34 OpalTest.node[0].wlan.radio electricFieldReal:vector ETV
attr recordingmode vector
vector 35 OpalTest.node[0].wlan.radio electricFieldImaginary:vector ETV
attr recordingmode vector
vector 36 OpalTest.node[1].wlan.mac.dcf packetSentToPeer:vector(packetBytes) ETV
attr interpolationmode none
attr recordingmode vector(packetBytes)
attr title "packets sent, packetBytes"
vector 37 OpalTest.node[1].wlan.mac.dcf packetSentToPeerMulticast:vector(packetBytes) ETV
attr interpolationmode none
attr recordingmode vector(packetBytes)
attr source ieee80211Multicast(packetSentToPeer)
attr title "packets sent: multicast, packetBytes"
vector 38 OpalTest.node[1].wlan.mac.dcf packetSentToPeerBroadcast:vector(packetBytes) ETV
attr interpolationmode none
attr recordingmode vector(packetBytes)
attr source ieee80211Broadcast(packetSentToPeer)
attr title "packets sent: broadcast , packetBytes"
vector 39 OpalTest.node[1].wlan.mac.dcf packetSentToPeerWithoutRetry:vector(packetBytes) ETV
attr interpolationmode none
attr recordingmode vector(packetBytes)
attr source ieee80211NotRetry(packetSentToPeer)
attr title "packets sent: without retry, packetBytes"
vector 40 OpalTest.node[1].wlan.mac.dcf.channelAccess.inProgressFrames queueingTime:vector ETV
attr interpolationmode none
attr recordingmode vector
attr source queueingTime(packetDequeued)
attr title "queueing times"
vector 41 OpalTest.node[0] receivedPower:vector ETV
attr recordingmode vector
attr source receptionMinSignalPower(wlan.radio.receptionEnded)
vector 42 OpalTest.node[0].wlan.mac packetReceivedFromLower:vector(packetBytes) ETV
attr interpolationmode none
attr recordingmode vector(packetBytes)
attr title "packets received from lower layer, packetBytes"
vector 43 OpalTest.node[0].wlan.mac.dcf packetReceivedFromPeer:vector(packetBytes) ETV
attr interpolationmode none
attr recordingmode vector(packetBytes)
attr title "packets received, packetBytes"
vector 44 OpalTest.node[0].wlan.mac.dcf packetReceivedFromPeerMulticast:vector(packetBytes) ETV
attr interpolationmode none
attr recordingmode vector(packetBytes)
attr source ieee80211Multicast(packetReceivedFromPeer)
attr title "packets received: multicast, packetBytes"
vector 45 OpalTest.node[0].wlan.mac.dcf packetReceivedFromPeerBroadcast:vector(packetBytes) ETV
attr interpolationmode none
attr recordingmode vector(packetBytes)
attr source ieee80211Broadcast(packetReceivedFromPeer)
attr title "packets received: broadcast, packetBytes"
vector 46 OpalTest.node[0].wlan.mac.dcf packetReceivedFromPeerWithoutRetry:vector(packetBytes) ETV
attr interpolationmode none
attr recordingmode vector(packetBytes)
attr source ieee80211NotRetry(packetReceivedFromPeer)
attr title "packets received: without retry, packetBytes"
vector 47 OpalTest.node[0].wlan.mac packetSentToUpper:vector(packetBytes) ETV
attr interpolationmode none
attr recordingmode vector(packetBytes)
attr title "packets sent to upper layer, packetBytes"
0	0	0	0
0	0	0	0
1	0	0	0
1	0	0	0
2	0	0	0
2	0	0	0
3	0	0	0
3	0	0	0
3	6	0.101097627005	1
3	10	0.101849627005	0
3	21	0.201097627005	1
3	25	0.201849627005	0
4	0	0	0
4	0	0	0
4	6	0.101097627005	1
4	10	0.101849627005	0
4	21	0.201097627005	1
4	25	0.201849627005	0
5	0	0	0
5	0	0	0
5	4	0.101097627005	1
5	5	0.101097627005	0
5	19	0.201097627005	1
5	20	0.201097627005	0
6	0	0	0
6	0	0	0
6	0	0	2
7	0	0	1
8	0	0	0
8	0	0	0
8	0	0	2
8	7	0.101097627005	3
8	11	0.101849627005	2
8	22	0.201097627005	3
8	26	0.201849627005	2
9	0	0	1
10	0	0	0
10	1	0.1	1
10	2	0.101097627005	1.01097627005
10	8	0.101097628465	1.01097628465
10	8	0.101097629041	1.01097629041
10	8	0.101097629494	1.01097629494
10	8	0.101097629864	1.01097629864
10	8	0.101097630236	1.01097630236
10	8	0.101097630646	1.01097630646
10	8	0.101097631021	1.01097631021
10	8	0.101097631418	1.01097631418
10	8	0.10109763179	1.0109763179
10	8	0.101097632186	1.01097632186
10	8	0.101097632559	1.01097632559
10	8	0.101097632918	1.01097632918
10	8	0.101097633297	1.01097633297
10	8	0.101097633694	1.01097633694
10	8	0.101097634081	1.01097634081
10	8	0.101097634506	1.01097634506
10	8	0.101097634883	1.01097634883
10	8	0.101097635241	1.01097635241
10	8	0.101097635609	1.01097635609
10	8	0.101097635997	1.01097635997
10	8	0.101097636364	1.01097636364
10	8	0.101097636767	1.01097636767
10	8	0.101097637179	1.01097637179
10	8	0.10109763755	1.0109763755
10	8	0.101097637922	1.01097637922
10	8	0.101097638278	1.01097638278
10	8	0.101097638668	1.01097638668
10	8	0.101097639056	1.01097639056
10	8	0.101097639456	1.01097639456
10	8	0.101097639851	1.01097639851
10	8	0.10109764026	1.0109764026
10	8	0.101097640624	1.01097640624
10	8	0.101097640994	1.01097640994
10	8	0.101097641376	1.01097641376
10	8	0.101097641752	1.01097641752
10	8	0.10109764215	1.0109764215
10	8	0.10109764251	1.0109764251
10	8	0.101097642912	1.01097642912
10	8	0.101097643283	1.01097643283
10	8	0.10109764364	1.0109764364
10	8	0.101097644014	1.01097644014
10	8	0.101097644401	1.01097644401
10	8	0.101097644796	1.01097644796
10	8	0.1010976452	1.010976452
10	8	0.101097645586	1.01097645586
10	8	0.101097645964	1.01097645964
10	8	0.101097646343	1.01097646343
10	8	0.101097646743	1.01097646743
10	8	0.101097647117	1.01097647117
10	8	0.101097647519	1.01097647519
10	8	0.10109764789	1.0109764789
10	8	0.101097648298	1.01097648298
10	8	0.10109764869	1.0109764869
10	8	0.101097649058	1.01097649058
10	8	0.101097649438	1.01097649438
10	8	0.101097649828	1.01097649828
10	8	0.101097650196	1.01097650196
10	8	0.101097650592	1.01097650592
10	8	0.101097651017	1.01097651017
10	8	0.101097651382	1.01097651382
10	8	0.101097651751	1.01097651751
10	8	0.10109765211	1.0109765211
10	8	0.101097652484	1.01097652484
10	8	0.101097652882	1.01097652882
10	8	0.101097653245	1.01097653245
10	8	0.101097653645	1.01097653645
10	8	0.101097654049	1.01097654049
10	8	0.101097654422	1.01097654422
10	8	0.101097654802	1.01097654802
10	8	0.101097655189	1.01097655189
10	8	0.101097655562	1.01097655562
10	8	0.10109765596	1.0109765596
10	8	0.101097656326	1.01097656326
10	8	0.101097656775	1.01097656775
10	9	0.101097657172	1.01097657172
10	9	0.101128436412	1.01128436412
10	9	0.101149801173	1.01149801173
10	9	0.101168821583	1.01168821583
10	9	0.101187755013	1.01187755013
10	9	0.101209764922	1.01209764922
10	9	0.101228820094	1.01228820094
10	9	0.101247919035	1.01247919035
10	9	0.101268608376	1.01268608376
10	9	0.101287386088	1.01287386088
10	9	0.101307033396	1.01307033396
10	9	0.101329574632	1.01329574632
10	9	0.101348869562	1.01348869562
10	9	0.101368775219	1.01368775219
10	9	0.101389438878	1.01389438878
10	9	0.101408218384	1.01408218384
10	9	0.101427331347	1.01427331347
10	9	0.101446758718	1.01446758718
10	9	0.101465691802	1.01465691802
10	9	0.101484820804	1.01484820804
10	9	0.101503538055	1.01503538055
10	9	0.10152311531	1.0152311531
10	9	0.101542935559	1.01542935559
10	9	0.101561537039	1.01561537039
10	9	0.101580351256	1.01580351256
10	9	0.101602198092	1.01602198092
10	9	0.101621940464	1.01621940464
10	9	0.101642391077	1.01642391077
10	9	0.101662474114	1.01662474114
10	9	0.101681703999	1.01681703999
10	9	0.101701020433	1.01701020433
10	9	0.101722593681	1.01722593681
10	9	0.101741809981	1.01741809981
10	9	0.101761328117	1.01761328117
10	9	0.101783163944	1.01783163944
10	9	0.101802328124	1.01802328124
10	9	0.101821660675	1.01821660675
10	9	0.101840911749	1.01840911749
10	11	0.101849627236	1.01849627236
10	11	0.101849627606	1.01849627606
10	11	0.101849627844	1.01849627844
10	11	0.101849628115	1.01849628115
10	11	0.101849628376	1.01849628376
10	11	0.101849628633	1.01849628633
10	11	0.101849628874	1.01849628874
10	11	0.101849629109	1.01849629109
10	11	0.101849629407	1.01849629407
10	11	0.101849629668	1.01849629668
10	11	0.101849629914	1.01849629914
10	11	0.101849630153	1.01849630153
10	11	0.101849630428	1.01849630428
10	11	0.101849630667	1.01849630667
10	11	0.1018496309	1.018496309
10	11	0.101849631184	1.01849631184
10	11	0.101849631444	1.01849631444
10	11	0.101849631704	1.01849631704
10	11	0.101849631941	1.01849631941
10	11	0.101849632234	1.01849632234
10	11	0.101849632495	1.01849632495
10	11	0.101849632748	1.01849632748
10	11	0.101849633023	1.01849633023
10	11	0.101849633281	1.01849633281
10	11	0.101849633527	1.01849633527
10	11	0.101849633763	1.01849633763
10	11	0.101849634033	1.01849634033
10	11	0.101849634296	1.01849634296
10	11	0.10184963455	1.0184963455
10	11	0.101849634817	1.01849634817
10	11	0.101849635058	1.01849635058
10	11	0.101849635338	1.01849635338
10	11	0.101849635588	1.01849635588
10	11	0.101849635861	1.01849635861
10	11	0.101849636126	1.01849636126
10	11	0.101849636409	1.01849636409
10	11	0.101849636671	1.01849636671
10	11	0.101849636908	1.01849636908
10	11	0.101849637154	1.01849637154
10	11	0.101849637414	1.01849637414
10	11	0.101849637684	1.01849637684
10	11	0.101849637922	1.01849637922
10	11	0.101849638168	1.01849638168
10	11	0.101849638424	1.01849638424
10	11	0.10184963866	1.0184963866
10	11	0.101849638904	1.01849638904
10	11	0.101849639141	1.01849639141
10	11	0.101849639407	1.01849639407
10	11	0.101849639686	1.01849639686
10	11	0.101849639949	1.01849639949
10	11	0.101849640196	1.01849640196
10	11	0.101849640432	1.01849640432
10	11	0.101849640691	1.01849640691
10	11	0.10184964093	1.0184964093
10	11	0.101849641214	1.01849641214
10	11	0.101849641477	1.01849641477
10	11	0.101849641733	1.01849641733
10	11	0.101849642012	1.01849642012
10	11	0.101849642256	1.01849642256
10	11	0.101849642501	1.01849642501
10	11	0.101849642761	1.01849642761
10	11	0.101849643045	1.01849643045
10	11	0.101849643289	1.01849643289
10	11	0.101849643523	1.01849643523
10	11	0.101849643788	1.01849643788
10	11	0.101849644025	1.01849644025
10	11	0.101849644273	1.01849644273
10	11	0.101849644535	1.01849644535
10	11	0.101849644833	1.01849644833
10	11	0.101849645075	1.01849645075
10	11	0.101849645305	1.01849645305
10	11	0.101849645558	1.01849645558
10	11	0.101849645792	1.01849645792
10	11	0.101849646085	1.01849646085
10	11	0.101849646373	1.01849646373
10	11	0.101849646701	1.01849646701
10	11	0.101849646953	1.01849646953
10	11	0.101849647243	1.01849647243
10	11	0.101849647507	1.01849647507
10	11	0.101849647762	1.01849647762
10	11	0.101849648013	1.01849648013
10	11	0.101849648247	1.01849648247
10	11	0.101849648491	1.01849648491
10	11	0.101849648726	1.01849648726
10	11	0.101849648995	1.01849648995
10	11	0.101849649246	1.01849649246
10	11	0.1018496495	1.018496495
10	11	0.101849649785	1.01849649785
10	11	0.101849650021	1.01849650021
10	11	0.101849650265	1.01849650265
10	11	0.101849650503	1.01849650503
10	11	0.101849650754	1.01849650754
10	11	0.101849651002	1.01849651002
10	11	0.101849651257	1.01849651257
10	11	0.101849651524	1.01849651524
10	11	0.101849651761	1.01849651761
10	11	0.101849652033	1.01849652033
10	11	0.101849652273	1.01849652273
10	11	0.101849652506	1.01849652506
10	11	0.101849652758	1.01849652758
10	11	0.101849653015	1.01849653015
10	11	0.101849653282	1.01849653282
10	11	0.101849653542	1.01849653542
10	11	0.101849653836	1.01849653836
10	11	0.101849654077	1.01849654077
10	11	0.101849654308	1.01849654308
10	11	0.101849654585	1.01849654585
10	11	0.101849654845	1.01849654845
10	11	0.10184965511	1.0184965511
10	11	0.101849655345	1.01849655345
10	11	0.101849655622	1.01849655622
10	11	0.101849655862	1.01849655862
10	11	0.101849656093	1.01849656093
10	11	0.101849656365	1.01849656365
10	11	0.101849656623	1.01849656623
10	11	0.101849656892	1.01849656892
10	11	0.101849656989	1.01849656989
10	16	0.2	2
10	17	0.201097627005	2.01097627005
10	23	0.201097627346	2.01097627346
10	23	0.201097627837	2.01097627837
10	23	0.201097628243	2.01097628243
10	23	0.201097628605	2.01097628605
10	23	0.201097628962	2.01097628962
10	23	0.201097629316	2.01097629316
10	23	0.201097629663	2.01097629663
10	23	0.201097630058	2.01097630058
10	23	0.201097630481	2.01097630481
10	23	0.20109763083	2.0109763083
10	23	0.201097631163	2.01097631163
10	23	0.201097631499	2.01097631499
10	23	0.201097631823	2.01097631823
10	23	0.201097632178	2.01097632178
10	23	0.201097632544	2.01097632544
10	23	0.20109763287	2.0109763287
10	23	0.20109763322	2.0109763322
10	23	0.201097633565	2.01097633565
10	23	0.201097633893	2.01097633893
10	23	0.201097634229	2.01097634229
10	23	0.201097634566	2.01097634566
10	23	0.201097634927	2.01097634927
10	23	0.20109763526	2.0109763526
10	23	0.20109763562	2.0109763562
10	23	0.201097635959	2.01097635959
10	23	0.201097636291	2.01097636291
10	23	0.201097636612	2.01097636612
10	23	0.201097636965	2.01097636965
10	23	0.201097637308	2.01097637308
10	23	0.201097637652	2.01097637652
10	23	0.201097638003	2.01097638003
10	23	0.201097638351	2.01097638351
10	23	0.201097638681	2.01097638681
10	23	0.201097639014	2.01097639014
10	23	0.201097639359	2.01097639359
10	23	0.201097639689	2.01097639689
10	23	0.201097640044	2.01097640044
10	23	0.201097640389	2.01097640389
10	23	0.201097640725	2.01097640725
10	23	0.201097641067	2.01097641067
10	23	0.201097641392	2.01097641392
10	23	0.201097641722	2.01097641722
10	23	0.201097642069	2.01097642069
10	23	0.201097642416	2.01097642416
10	23	0.201097642772	2.01097642772
10	23	0.201097643107	2.01097643107
10	23	0.201097643437	2.01097643437
10	23	0.20109764377	2.0109764377
10	23	0.201097644092	2.01097644092
10	23	0.20109764446	2.0109764446
10	23	0.201097644795	2.01097644795
10	23	0.201097645139	2.01097645139
10	23	0.201097645489	2.01097645489
10	23	0.201097645856	2.01097645856
10	23	0.201097646185	2.01097646185
10	23	0.20109764652	2.0109764652
10	23	0.201097646891	2.01097646891
10	23	0.201097647223	2.01097647223
10	23	0.201097647579	2.01097647579
10	23	0.201097647944	2.01097647944
10	23	0.201097648272	2.01097648272
10	23	0.201097648607	2.01097648607
10	23	0.201097648931	2.01097648931
10	23	0.201097649284	2.01097649284
10	23	0.201097649631	2.01097649631
10	23	0.20109764998	2.0109764998
10	23	0.201097650344	2.01097650344
10	23	0.201097650703	2.01097650703
10	23	0.201097651029	2.01097651029
10	23	0.20109765137	2.0109765137
10	23	0.201097651725	2.01097651725
10	23	0.201097652069	2.01097652069
10	23	0.201097652431	2.01097652431
10	23	0.201097652775	2.01097652775
10	23	0.201097653132	2.01097653132
10	23	0.201097653492	2.01097653492
10	24	0.201097653848	2.01097653848
10	24	0.20112612889	2.0112612889
10	24	0.201145088018	2.01145088018
10	24	0.201164366025	2.01164366025
10	24	0.201185126227	2.01185126227
10	24	0.20120426104	2.0120426104
10	24	0.201223400955	2.01223400955
10	24	0.201244578444	2.01244578444
10	24	0.201263426691	2.01263426691
10	24	0.201282600151	2.01282600151
10	24	0.201304201155	2.01304201155
10	24	0.201323177313	2.01323177313
10	24	0.201342187769	2.01342187769
10	24	0.201361530839	2.01361530839
10	24	0.20138090985	2.0138090985
10	24	0.201400552332	2.01400552332
10	24	0.201419176687	2.01419176687
10	24	0.201439408298	2.01439408298
10	24	0.201458423541	2.01458423541
10	24	0.201477134459	2.01477134459
10	24	0.201496057285	2.01496057285
10	24	0.201515482505	2.01515482505
10	24	0.201534121347	2.01534121347
10	24	0.20155307087	2.0155307087
10	24	0.201573166002	2.01573166002
10	24	0.201592110248	2.01592110248
10	24	0.201611012362	2.01611012362
10	24	0.201629637569	2.01629637569
10	24	0.201649098666	2.01649098666
10	24	0.20166814075	2.0166814075
10	24	0.201686855979	2.01686855979
10	24	0.201705838832	2.01705838832
10	24	0.201727111983	2.01727111983
10	24	0.201745897585	2.01745897585
10	24	0.201764874479	2.01764874479
10	24	0.201785747791	2.01785747791
10	24	0.201804751433	2.01804751433
10	24	0.201823680409	2.01823680409
10	24	0.201843807728	2.01843807728
10	26	0.201849627249	2.01849627249
10	26	0.201849627572	2.01849627572
10	26	0.201849627787	2.01849627787
10	26	0.201849628029	2.01849628029
10	26	0.201849628244	2.01849628244
10	26	0.201849628453	2.01849628453
10	26	0.201849628696	2.01849628696
10	26	0.201849628917	2.01849628917
10	26	0.201849629192	2.01849629192
10	26	0.201849629434	2.01849629434
10	26	0.20184962967	2.0184962967
10	26	0.201849629913	2.01849629913
10	26	0.201849630183	2.01849630183
10	26	0.201849630401	2.01849630401
10	26	0.201849630612	2.01849630612
10	26	0.201849630847	2.01849630847
10	26	0.201849631062	2.01849631062
10	26	0.20184963128	2.0184963128
10	26	0.201849631513	2.01849631513
10	26	0.201849631784	2.01849631784
10	26	0.201849632016	2.01849632016
10	26	0.201849632313	2.01849632313
10	26	0.201849632548	2.01849632548
10	26	0.201849632773	2.01849632773
10	26	0.201849632995	2.01849632995
10	26	0.201849633209	2.01849633209
10	26	0.201849633442	2.01849633442
10	26	0.20184963366	2.0184963366
10	26	0.201849634072	2.01849634072
10	26	0.201849634292	2.01849634292
10	26	0.201849634544	2.01849634544
10	26	0.201849634756	2.01849634756
10	26	0.201849634994	2.01849634994
10	26	0.201849635211	2.01849635211
10	26	0.20184963549	2.0184963549
10	26	0.201849635731	2.01849635731
10	26	0.201849635955	2.01849635955
10	26	0.201849636171	2.01849636171
10	26	0.201849636382	2.01849636382
10	26	0.201849636603	2.01849636603
10	26	0.201849636821	2.01849636821
10	26	0.201849637097	2.01849637097
10	26	0.201849637334	2.01849637334
10	26	0.201849637572	2.01849637572
10	26	0.201849637792	2.01849637792
11	0	0	10
11	1	0.1	10
11	2	0.101097627005	10
11	8	0.101097628465	10
11	8	0.101097629041	10
11	8	0.101097629494	10
11	8	0.101097629864	10
11	8	0.101097630236	10
11	8	0.101097630646	10
11	8	0.101097631021	10
11	8	0.101097631418	10
11	8	0.10109763179	10
11	8	0.101097632186	10
11	8	0.101097632559	10
11	8	0.101097632918	10
11	8	0.101097633297	10
11	8	0.101097633694	10
11	8	0.101097634081	10
11	8	0.101097634506	10
11	8	0.101097634883	10
11	8	0.101097635241	10
11	8	0.101097635609	10
11	8	0.101097635997	10
11	8	0.101097636364	10
11	8	0.101097636767	10
11	8	0.101097637179	10
11	8	0.10109763755	10
11	8	0.101097637922	10
11	8	0.101097638278	10
11	8	0.101097638668	10
11	8	0.101097639056	10
11	8	0.101097639456	10
11	8	0.101097639851	10
11	8	0.10109764026	10
11	8	0.101097640624	10
11	8	0.101097640994	10
11	8	0.101097641376	10
11	8	0.101097641752	10
11	8	0.10109764215	10
11	8	0.10109764251	10
11	8	0.101097642912	10
11	8	0.101097643283	10
11	8	0.10109764364	10
11	8	0.101097644014	10
11	8	0.101097644401	10
11	8	0.101097644796	10
11	8	0.1010976452	10
11	8	0.101097645586	10
11	8	0.101097645964	10
11	8	0.101097646343	10
11	8	0.101097646743	10
11	8	0.101097647117	10
11	8	0.101097647519	10
11	8	0.10109764789	10
11	8	0.101097648298	10
11	8	0.10109764869	10
11	8	0.101097649058	10
11	8	0.101097649438	10
11	8	0.101097649828	10
11	8	0.101097650196	10
11	8	0.101097650592	10
11	8	0.101097651017	10
11	8	0.101097651382	10
11	8	0.101097651751	10
11	8	0.10109765211	10
11	8	0.101097652484	10
11	8	0.101097652882	10
11	8	0.101097653245	10
11	8	0.101097653645	10
11	8	0.101097654049	10
11	8	0.101097654422	10
11	8	0.101097654802	10
11	8	0.101097655189	10
11	8	0.101097655562	10
11	8	0.10109765596	10
11	8	0.101097656326	10
11	8	0.101097656775	10
11	9	0.101097657172	10
11	9	0.101128436412	10
11	9	0.101149801173	10
11	9	0.101168821583	10
11	9	0.101187755013	10
11	9	0.101209764922	10
11	9	0.101228820094	10
11	9	0.101247919035	10
11	9	0.101268608376	10
11	9	0.101287386088	10
11	9	0.101307033396	10
11	9	0.101329574632	10
11	9	0.101348869562	10
11	9	0.101368775219	10
11	9	0.101389438878	10
11	9	0.101408218384	10
11	9	0.101427331347	10
11	9	0.101446758718	10
11	9	0.101465691802	10
11	9	0.101484820804	10
11	9	0.101503538055	10
11	9	0.10152311531	10
11	9	0.101542935559	10
11	9	0.101561537039	10
11	9	0.101580351256	10
11	9	0.101602198092	10
11	9	0.101621940464	10
11	9	0.101642391077	10
11	9	0.101662474114	10
11	9	0.101681703999	10
11	9	0.101701020433	10
11	9	0.101722593681	10
11	9	0.101741809981	10
11	9	0.101761328117	10
11	9	0.101783163944	10
11	9	0.101802328124	10
11	9	0.101821660675	10
11	9	0.101840911749	10
11	11	0.101849627236	10
11	11	0.101849627606	10
11	11	0.101849627844	10
11	11	0.101849628115	10
11	11	0.101849628376	10
11	11	0.101849628633	10
11	11	0.101849628874	10
11	11	0.101849629109	10
11	11	0.101849629407	10
11	11	0.101849629668	10
11	11	0.101849629914	10
11	11	0.101849630153	10
11	11	0.101849630428	10
11	11	0.101849630667	10
11	11	0.1018496309	10
11	11	0.101849631184	10
11	11	0.101849631444	10
11	11	0.101849631704	10
11	11	0.101849631941	10
11	11	0.101849632234	10
11	11	0.101849632495	10
11	11	0.101849632748	10
11	11	0.101849633023	10
11	11	0.101849633281	10
11	11	0.101849633527	10
11	11	0.101849633763	10
11	11	0.101849634033	10
11	11	0.101849634296	10
11	11	0.10184963455	10
11	11	0.101849634817	10
11	11	0.101849635058	10
11	11	0.101849635338	10
11	11	0.101849635588	10
11	11	0.101849635861	10
11	11	0.101849636126	10
11	11	0.101849636409	10
11	11	0.101849636671	10
11	11	0.101849636908	10
11	11	0.101849637154	10
11	11	0.101849637414	10
11	11	0.101849637684	10
11	11	0.101849637922	10
11	11	0.101849638168	10
11	11	0.101849638424	10
11	11	0.10184963866	10
11	11	0.101849638904	10
11	11	0.101849639141	10
11	11	0.101849639407	10
11	11	0.101849639686	10