file 254700 1690543638                                          
version 3
run two-ray-0-20230728-12:41:06-887125
attr configname two-ray
attr datetime 20230728-12:41:06
attr datetimef 20230728-124106
attr experiment two-ray
attr inifile omnetpp.ini
attr iterationvars $loadMeshes=true
attr iterationvarsd loadMeshes=true
attr iterationvarsf loadMeshes=true-
attr measurement $loadMeshes=true
attr network inet.examples.opal.OpalNodeManager
attr processid 887125
attr repetition 0
attr replication #0
attr resultdir two-ray
attr runnumber 0
attr seedset 0
itervar loadMeshes true
config image-path ../../images
config network inet.examples.opal.OpalNodeManager
config sim-time-limit 1s
config result-dir two-ray
config *.nodes 1
config *.nodeManager.typename inet.veneris.opal.test.FileNodeManager
config *.nodeManager.moduleType "\"inet.veneris.opal.test.OpalNode\""
config *.nodeManager.filename "\"100nodes.txt\""
config *.*.mobility.initFromDisplayString false
config *.*.mobility.typename StationaryMobility
config *.node[1..99].generatorType "\"inet.veneris.opal.test.OpalTest\""
config *.node[0].generatorType "\"OpalTestTransmitter\""
config *.node[0].initialX 0m
config *.node[0].initialY 10m
config *.node[0].initialZ 0m
config *.radioMedium.typename OpalRadioMedium
config *.radioMedium.loadMeshesFromFile true
config *.radioMedium.useJson false
config *.radioMedium.meshesPath "\"meshes\""
config *.radioMedium.meshes "\"LargePlane\""
config network inet.examples.opal.OpalTest
config sim-time-limit 0.2s
config *.node[*].wlan.bitrate 6Mbps
config *.node[*].wlan.mac.dcf.rateSelection.multicastFrameBitrate 6Mbps
config *.node[*].wlan.mac.dcf.rateSelection.dataFrameBitrate 6Mbps
config *.node[*].wlan.mac.dcf.rateSelection.dataFrameBandwidth 20MHz
config *.*.wlan.mac.dcf.channelAccess.contention.initialChannelBusy false
config *.*.wlan.radio.bandName "\"5.9 GHz\""
config *.node[*].wlan.radio.centerFrequency 5.9GHz
config *.radioMedium.mediumLimitCache.centerFrequency 5.9GHz
config *.radioMedium.mediumLimitCache.maxTransmissionDuration 0.5s
config *.node[*].wlan.radio.transmitter.power 1W

vector 0 OpalNodeManager.node[0].wlan.mac.dcf frameSequenceActive:vector ETV
attr autoWarmupFilter false
attr interpolationmode sample-hold
attr recordingmode vector
attr source warmup(count(frameSequenceStarted)-count(frameSequenceFinished))
attr title "frame sequence active"
vector 1 OpalNodeManager.node[0].wlan.mac.dcf.channelAccess.inProgressFrames queueLength:vector ETV
attr autoWarmupFilter false
attr interpolationmode sample-hold
attr recordingmode vector
attr source "warmup(count(packetEnqueued) - count(packetDequeued))"
attr title "queue length"
vector 2 OpalNodeManager.node[0].wlan.mac.dcf.channelAccess.contention backoffActive:vector ETV
attr autoWarmupFilter false
attr interpolationmode sample-hold
attr recordingmode vector
attr source warmup(count(backoffStarted)-count(backoffStopped))
attr title "backoff active"
vector 3 OpalNodeManager.node[0].wlan.radio radioMode:vector ETV
attr interpolationmode sample-hold
attr recordingmode vector
attr source radioModeChanged
attr title "Radio mode"
vector 4 OpalNodeManager.node[0].wlan.radio radioChannel:vector ETV
attr interpolationmode sample-hold
attr recordingmode vector
attr source radioChannelChanged
attr title "Radio channel"
vector 5 OpalNodeManager.node[0] x:vector ETV
attr recordingmode vector
attr source xCoord(mobilityPos(mobility.mobilityStateChanged))
vector 6 OpalNodeManager.node[0] y:vector ETV
attr recordingmode vector
attr source yCoord(mobilityPos(mobility.mobilityStateChanged))
vector 7 OpalNodeManager.node[0] z:vector ETV
attr recordingmode vector
attr source zCoord(mobilityPos(mobility.mobilityStateChanged))
vector 8 OpalNodeManager.node[0].wlan.radio receptionState:vector ETV
attr interpolationmode sample-hold
attr recordingmode vector
attr source receptionStateChanged
attr title "Radio reception state"
vector 9 OpalNodeManager.node[0].wlan.mac.dcf.channelAccess.contention stateChanged:vector ETV
attr enum IDLE,DEFER,IFS_AND_BACKOFF
attr interpolationmode none
attr recordingmode vector
attr title "contention state changed"
attr type enum
vector 10 OpalNodeManager.node[0].wlan.mac.dcf.recoveryProcedure contentionWindowChanged:vector ETV
attr interpolationmode sample-hold
attr recordingmode vector
attr title "contention window"
vector 11 OpalNodeManager.node[1].wlan.mac.dcf frameSequenceActive:vector ETV
attr autoWarmupFilter false
attr interpolationmode sample-hold
attr recordingmode vector
attr source warmup(count(frameSequenceStarted)-count(frameSequenceFinished))
attr title "frame sequence active"
vector 12 OpalNodeManager.node[1].wlan.mac.dcf.channelAccess.inProgressFrames queueLength:vector ETV
attr autoWarmupFilter false
attr interpolationmode sample-hold
attr recordingmode vector
attr source "warmup(count(packetEnqueued) - count(packetDequeued))"
attr title "queue length"
vector 13 OpalNodeManager.node[1].wlan.mac.dcf.channelAccess.contention backoffActive:vector ETV
attr autoWarmupFilter false
attr interpolationmode sample-hold
attr recordingmode vector
attr source warmup(count(backoffStarted)-count(backoffStopped))
attr title "backoff active"
vector 14 OpalNodeManager.node[2].wlan.mac.dcf frameSequenceActive:vector ETV
attr autoWarmupFilter false
attr interpolationmode sample-hold
attr recordingmode vector
attr source warmup(count(frameSequenceStarted)-count(frameSequenceFinished))
attr title "frame sequence active"
vector 15 OpalNodeManager.node[2].wlan.mac.dcf.channelAccess.inProgressFrames queueLength:vector ETV
attr autoWarmupFilter false
attr interpolationmode sample-hold
attr recordingmode vector
attr source "warmup(count(packetEnqueued) - count(packetDequeued))"
attr title "queue length"
vector 16 OpalNodeManager.node[2].wlan.mac.dcf.channelAccess.contention backoffActive:vector ETV
attr autoWarmupFilter false
attr interpolationmode sample-hold
attr recordingmode vector
attr source warmup(count(backoffStarted)-count(backoffStopped))
attr title "backoff active"
vector 17 OpalNodeManager.node[3].wlan.mac.dcf frameSequenceActive:vector ETV
attr autoWarmupFilter false
attr interpolationmode sample-hold
attr recordingmode vector
attr source warmup(count(frameSequenceStarted)-count(frameSequenceFinished))
attr title "frame sequence active"
vector 18 OpalNodeManager.node[3].wlan.mac.dcf.channelAccess.inProgressFrames queueLength:vector ETV
attr autoWarmupFilter false
attr interpolationmode sample-hold
attr recordingmode vector
attr source "warmup(count(packetEnqueued) - count(packetDequeued))"
attr title "queue length"
vector 19 OpalNodeManager.node[3].wlan.mac.dcf.channelAccess.contention backoffActive:vector ETV
attr autoWarmupFilter false
attr interpolationmode sample-hold
attr recordingmode vector
attr source warmup(count(backoffStarted)-count(backoffStopped))
attr title "backoff active"
vector 20 OpalNodeManager.node[4].wlan.mac.dcf frameSequenceActive:vector ETV
attr autoWarmupFilter false
attr interpolationmode sample-hold
attr recordingmode vector
attr source warmup(count(frameSequenceStarted)-count(frameSequenceFinished))
attr title "frame sequence active"
vector 21 OpalNodeManager.node[4].wlan.mac.dcf.channelAccess.inProgressFrames queueLength:vector ETV
attr autoWarmupFilter false
attr interpolationmode sample-hold
attr recordingmode vector
attr source "warmup(count(packetEnqueued) - count(packetDequeued))"
attr title "queue length"
vector 22 OpalNodeManager.node[4].wlan.mac.dcf.channelAccess.contention backoffActive:vector ETV
attr autoWarmupFilter false
attr interpolationmode sample-hold
attr recordingmode vector
attr source warmup(count(backoffStarted)-count(backoffStopped))
attr title "backoff active"
vector 23 OpalNodeManager.node[5].wlan.mac.dcf frameSequenceActive:vector ETV
attr autoWarmupFilter false
attr interpolationmode sample-hold
attr recordingmode vector
attr source warmup(count(frameSequenceStarted)-count(frameSequenceFinished))
attr title "frame sequence active"
vector 24 OpalNodeManager.node[5].wlan.mac.dcf.channelAccess.inProgressFrames queueLength:vector ETV
attr autoWarmupFilter false
attr interpolationmode sample-hold
attr recordingmode vector
attr source "warmup(count(packetEnqueued) - count(packetDequeued))"
attr title "queue length"
vector 25 OpalNodeManager.node[5].wlan.mac.dcf.channelAccess.contention backoffActive:vector ETV
attr autoWarmupFilter false
attr interpolationmode sample-hold
attr recordingmode vector
attr source warmup(count(backoffStarted)-count(backoffStopped))
attr title "backoff active"
vector 26 OpalNodeManager.node[6].wlan.mac.dcf frameSequenceActive:vector ETV
attr autoWarmupFilter false
attr interpolationmode sample-hold
attr recordingmode vector
attr source warmup(count(frameSequenceStarted)-count(frameSequenceFinished))
attr title "frame sequence active"
vector 27 OpalNodeManager.node[6].wlan.mac.dcf.channelAccess.inProgressFrames queueLength:vector ETV
attr autoWarmupFilter false
attr interpolationmode sample-hold
attr recordingmode vector
attr source "warmup(count(packetEnqueued) - count(packetDequeued))"
attr title "queue length"
vector 28 OpalNodeManager.node[6].wlan.mac.dcf.channelAccess.contention backoffActive:vector ETV
attr autoWarmupFilter false
attr interpolationmode sample-hold
attr recordingmode vector
attr source warmup(count(backoffStarted)-count(backoffStopped))
attr title "backoff active"
vector 29 OpalNodeManager.node[7].wlan.mac.dcf frameSequenceActive:vector ETV
attr autoWarmupFilter false
attr interpolationmode sample-hold
attr recordingmode vector
attr source warmup(count(frameSequenceStarted)-count(frameSequenceFinished))
attr title "frame sequence active"
vector 30 OpalNodeManager.node[7].wlan.mac.dcf.channelAccess.inProgressFrames queueLength:vector ETV
attr autoWarmupFilter false
attr interpolationmode sample-hold
attr recordingmode vector
attr source "warmup(count(packetEnqueued) - count(packetDequeued))"
attr title "queue length"
vector 31 OpalNodeManager.node[7].wlan.mac.dcf.channelAccess.contention backoffActive:vector ETV
attr autoWarmupFilter false
attr interpolationmode sample-hold
attr recordingmode vector
attr source warmup(count(backoffStarted)-count(backoffStopped))
attr title "backoff active"
vector 32 OpalNodeManager.node[8].wlan.mac.dcf frameSequenceActive:vector ETV
attr autoWarmupFilter false
attr interpolationmode sample-hold
attr recordingmode vector
attr source warmup(count(frameSequenceStarted)-count(frameSequenceFinished))
attr title "frame sequence active"
vector 33 OpalNodeManager.node[8].wlan.mac.dcf.channelAccess.inProgressFrames queueLength:vector ETV
attr autoWarmupFilter false
attr interpolationmode sample-hold
attr recordingmode vector
attr source "warmup(count(packetEnqueued) - count(packetDequeued))"
attr title "queue length"
vector 34 OpalNodeManager.node[8].wlan.mac.dcf.channelAccess.contention backoffActive:vector ETV
attr autoWarmupFilter false
attr interpolationmode sample-hold
attr recordingmode vector
attr source warmup(count(backoffStarted)-count(backoffStopped))
attr title "backoff active"
vector 35 OpalNodeManager.node[9].wlan.mac.dcf frameSequenceActive:vector ETV
attr autoWarmupFilter false
attr interpolationmode sample-hold
attr recordingmode vector
attr source warmup(count(frameSequenceStarted)-count(frameSequenceFinished))
attr title "frame sequence active"
vector 36 OpalNodeManager.node[9].wlan.mac.dcf.channelAccess.inProgressFrames queueLength:vector ETV
attr autoWarmupFilter false
attr interpolationmode sample-hold
attr recordingmode vector
attr source "warmup(count(packetEnqueued) - count(packetDequeued))"
attr title "queue length"
vector 37 OpalNodeManager.node[9].wlan.mac.dcf.channelAccess.contention backoffActive:vector ETV
attr autoWarmupFilter false
attr interpolationmode sample-hold
attr recordingmode vector
attr source warmup(count(backoffStarted)-count(backoffStopped))
attr title "backoff active"
vector 38 OpalNodeManager.node[10].wlan.mac.dcf frameSequenceActive:vector ETV
attr autoWarmupFilter false
attr interpolationmode sample-hold
attr recordingmode vector
attr source warmup(count(frameSequenceStarted)-count(frameSequenceFinished))
attr title "frame sequence active"
vector 39 OpalNodeManager.node[10].wlan.mac.dcf.channelAccess.inProgressFrames queueLength:vector ETV
attr autoWarmupFilter false
attr interpolationmode sample-hold
attr recordingmode vector
attr source "warmup(count(packetEnqueued) - count(packetDequeued))"
attr title "queue length"
vector 40 OpalNodeManager.node[10].wlan.mac.dcf.channelAccess.contention backoffActive:vector ETV
attr autoWarmupFilter false
attr interpolationmode sample-hold
attr recordingmode vector
attr source warmup(count(backoffStarted)-count(backoffStopped))
attr title "backoff active"
vector 41 OpalNodeManager.node[11].wlan.mac.dcf frameSequenceActive:vector ETV
attr autoWarmupFilter false
attr interpolationmode sample-hold
attr recordingmode vector
attr source warmup(count(frameSequenceStarted)-count(frameSequenceFinished))
attr title "frame sequence active"
vector 42 OpalNodeManager.node[11].wlan.mac.dcf.channelAccess.inProgressFrames queueLength:vector ETV
attr autoWarmupFilter false
attr interpolationmode sample-hold
attr recordingmode vector
attr source "warmup(count(packetEnqueued) - count(packetDequeued))"
attr title "queue length"
vector 43 OpalNodeManager.node[11].wlan.mac.dcf.channelAccess.contention backoffActive:vector ETV
attr autoWarmupFilter false
attr interpolationmode sample-hold
attr recordingmode vector
attr source warmup(count(backoffStarted)-count(backoffStopped))
attr title "backoff active"
vector 44 OpalNodeManager.node[12].wlan.mac.dcf frameSequenceActive:vector ETV
attr autoWarmupFilter false
attr interpolationmode sample-hold
attr recordingmode vector
attr source warmup(count(frameSequenceStarted)-count(frameSequenceFinished))
attr title "frame sequence active"
vector 45 OpalNodeManager.node[12].wlan.mac.dcf.channelAccess.inProgressFrames queueLength:vector ETV
attr autoWarmupFilter false
attr interpolationmode sample-hold
attr recordingmode vector
attr source "warmup(count(packetEnqueued) - count(packetDequeued))"
attr title "queue length"
vector 46 OpalNodeManager.node[12].wlan.mac.dcf.channelAccess.contention backoffActive:vector ETV
attr autoWarmupFilter false
attr interpolationmode sample-hold
attr recordingmode vector
attr source warmup(count(backoffStarted)-count(backoffStopped))
attr title "backoff active"
vector 47 OpalNodeManager.node[13].wlan.mac.dcf frameSequenceActive:vector ETV
attr autoWarmupFilter false
attr interpolationmode sample-hold
attr recordingmode vector
attr source warmup(count(frameSequenceStarted)-count(frameSequenceFinished))
attr title "frame sequence active"
vector 48 OpalNodeManager.node[13].wlan.mac.dcf.channelAccess.inProgressFrames queueLength:vector ETV
attr autoWarmupFilter false
attr interpolationmode sample-hold
attr recordingmode vector
attr source "warmup(count(packetEnqueued) - count(packetDequeued))"
attr title "queue length"
vector 49 OpalNodeManager.node[13].wlan.mac.dcf.channelAccess.contention backoffActive:vector ETV
attr autoWarmupFilter false
attr interpolationmode sample-hold
attr recordingmode vector
attr source warmup(count(backoffStarted)-count(backoffStopped))
attr title "backoff active"
vector 50 OpalNodeManager.node[14].wlan.mac.dcf frameSequenceActive:vector ETV
attr autoWarmupFilter false
attr interpolationmode sample-hold
attr recordingmode vector
attr source warmup(count(frameSequenceStarted)-count(frameSequenceFinished))
attr title "frame sequence active"
vector 51 OpalNodeManager.node[14].wlan.mac.dcf.channelAccess.inProgressFrames queueLength:vector ETV
attr autoWarmupFilter false
attr interpolationmode sample-hold
attr recordingmode vector
attr source "warmup(count(packetEnqueued) - count(packetDequeued))"
attr title "queue length"
vector 52 OpalNodeManager.node[14].wlan.mac.dcf.channelAccess.contention backoffActive:vector ETV
attr autoWarmupFilter false
attr interpolationmode sample-hold
attr recordingmode vector
attr source warmup(count(backoffStarted)-count(backoffStopped))
attr title "backoff active"
vector 53 OpalNodeManager.node[15].wlan.mac.dcf frameSequenceActive:vector ETV
attr autoWarmupFilter false
attr interpolationmode sample-hold
attr recordingmode vector
attr source warmup(count(frameSequenceStarted)-count(frameSequenceFinished))
attr title "frame sequence active"
vector 54 OpalNodeManager.node[15].wlan.mac.dcf.channelAccess.inProgressFrames queueLength:vector ETV
attr autoWarmupFilter false
attr interpolationmode sample-hold
attr recordingmode vector
attr source "warmup(count(packetEnqueued) - count(packetDequeued))"
attr title "queue length"
vector 55 OpalNodeManager.node[15].wlan.mac.dcf.channelAccess.contention backoffActive:vector ETV
attr autoWarmupFilter false
attr interpolationmode sample-hold
attr recordingmode vector
attr source warmup(count(backoffStarted)-count(backoffStopped))
attr title "backoff active"
vector 56 OpalNodeManager.node[16].wlan.mac.dcf frameSequenceActive:vector ETV
attr autoWarmupFilter false
attr interpolationmode sample-hold
attr recordingmode vector
attr source warmup(count(frameSequenceStarted)-count(frameSequenceFinished))
attr title "frame sequence active"
vector 57 OpalNodeManager.node[16].wlan.mac.dcf.channelAccess.inProgressFrames queueLength:vector ETV
attr autoWarmupFilter false
attr interpolationmode sample-hold
attr recordingmode vector
attr source "warmup(count(packetEnqueued) - count(packetDequeued))"
attr title "queue length"
vector 58 OpalNodeManager.node[16].wlan.mac.dcf.channelAccess.contention backoffActive:vector ETV
attr autoWarmupFilter false
attr interpolationmode sample-hold
attr recordingmode vector
attr source warmup(count(backoffStarted)-count(backoffStopped))
attr title "backoff active"
vector 59 OpalNodeManager.node[17].wlan.mac.dcf frameSequenceActive:vector ETV
attr autoWarmupFilter false
attr interpolationmode sample-hold
attr recordingmode vector
attr source warmup(count(frameSequenceStarted)-count(frameSequenceFinished))
attr title "frame sequence active"
vector 60 OpalNodeManager.node[17].wlan.mac.dcf.channelAccess.inProgressFrames queueLength:vector ETV
attr autoWarmupFilter false
attr interpolationmode sample-hold
attr recordingmode vector
attr source "warmup(count(packetEnqueued) - count(packetDequeued))"
attr title "queue length"
vector 61 OpalNodeManager.node[17].wlan.mac.dcf.channelAccess.contention backoffActive:vector ETV
attr autoWarmupFilter false
attr interpolationmode sample-hold
attr recordingmode vector
attr source warmup(count(backoffStarted)-count(backoffStopped))
attr title "backoff active"
vector 62 OpalNodeManager.node[18].wlan.mac.dcf frameSequenceActive:vector ETV
attr autoWarmupFilter false
attr interpolationmode sample-hold
attr recordingmode vector
attr source warmup(count(frameSequenceStarted)-count(frameSequenceFinished))
attr title "frame sequence active"
vector 63 OpalNodeManager.node[18].wlan.mac.dcf.channelAccess.inProgressFrames queueLength:vector ETV
attr autoWarmupFilter false
attr interpolationmode sample-hold
attr recordingmode vector
attr source "warmup(count(packetEnqueued) - count(packetDequeued))"
attr title "queue length"
vector 64 OpalNodeManager.node[18].wlan.mac.dcf.channelAccess.contention backoffActive:vector ETV
attr autoWarmupFilter false
attr interpolationmode sample-hold
attr recordingmode vector
attr source warmup(count(backoffStarted)-count(backoffStopped))
attr title "backoff active"
vector 65 OpalNodeManager.node[19].wlan.mac.dcf frameSequenceActive:vector ETV
attr autoWarmupFilter false
attr interpolationmode sample-hold
attr recordingmode vector
attr source warmup(count(frameSequenceStarted)-count(frameSequenceFinished))
attr title "frame sequence active"
vector 66 OpalNodeManager.node[19].wlan.mac.dcf.channelAccess.inProgressFrames queueLength:vector ETV
attr autoWarmupFilter false
attr interpolationmode sample-hold
attr recordingmode vector
attr source "warmup(count(packetEnqueued) - count(packetDequeued))"
attr title "queue length"
vector 67 OpalNodeManager.node[19].wlan.mac.dcf.channelAccess.contention backoffActive:vector ETV
attr autoWarmupFilter false
attr interpolationmode sample-hold
attr recordingmode vector
attr source warmup(count(backoffStarted)-count(backoffStopped))
attr title "backoff active"
vector 68 OpalNodeManager.node[20].wlan.mac.dcf frameSequenceActive:vector ETV
attr autoWarmupFilter false
attr interpolationmode sample-hold
attr recordingmode vector
attr source warmup(count(frameSequenceStarted)-count(frameSequenceFinished))
attr title "frame sequence active"
vector 69 OpalNodeManager.node[20].wlan.mac.dcf.channelAccess.inProgressFrames queueLength:vector ETV
attr autoWarmupFilter false
attr interpolationmode sample-hold
attr recordingmode vector
attr source "warmup(count(packetEnqueued) - count(packetDequeued))"
attr title "queue length"
vector 70 OpalNodeManager.node[20].wlan.mac.dcf.channelAccess.contention backoffActive:vector ETV
attr autoWarmupFilter false
attr interpolationmode sample-hold
attr recordingmode vector
attr source warmup(count(backoffStarted)-count(backoffStopped))
attr title "backoff active"
vector 71 OpalNodeManager.node[21].wlan.mac.dcf frameSequenceActive:vector ETV
attr autoWarmupFilter false
attr interpolationmode sample-hold
attr recordingmode vector
attr source warmup(count(frameSequenceStarted)-count(frameSequenceFinished))
attr title "frame sequence active"
vector 72 OpalNodeManager.node[21].wlan.mac.dcf.channelAccess.inProgressFrames queueLength:vector ETV
attr autoWarmupFilter false
attr interpolationmode sample-hold
attr recordingmode vector
attr source "warmup(count(packetEnqueued) - count(packetDequeued))"
attr title "queue length"
vector 73 OpalNodeManager.node[21].wlan.mac.dcf.channelAccess.contention backoffActive:vector ETV
attr autoWarmupFilter false
attr interpolationmode sample-hold
attr recordingmode vector
attr source warmup(count(backoffStarted)-count(backoffStopped))
attr title "backoff active"
vector 74 OpalNodeManager.node[22].wlan.mac.dcf frameSequenceActive:vector ETV
attr autoWarmupFilter false
attr interpolationmode sample-hold
attr recordingmode vector
attr source warmup(count(frameSequenceStarted)-count(frameSequenceFinished))
attr title "frame sequence active"
vector 75 OpalNodeManager.node[22].wlan.mac.dcf.channelAccess.inProgressFrames queueLength:vector ETV
attr autoWarmupFilter false
attr interpolationmode sample-hold
attr recordingmode vector
attr source "warmup(count(packetEnqueued) - count(packetDequeued))"
attr title "queue length"
vector 76 OpalNodeManager.node[22].wlan.mac.dcf.channelAccess.contention backoffActive:vector ETV
attr autoWarmupFilter false
attr interpolationmode sample-hold
attr recordingmode vector
attr source warmup(count(backoffStarted)-count(backoffStopped))
attr title "backoff active"
vector 77 OpalNodeManager.node[23].wlan.mac.dcf frameSequenceActive:vector ETV
attr autoWarmupFilter false
attr interpolationmode sample-hold
attr recordingmode vector
attr source warmup(count(frameSequenceStarted)-count(frameSequenceFinished))
attr title "frame sequence active"
vector 78 OpalNodeManager.node[23].wlan.mac.dcf.channelAccess.inProgressFrames queueLength:vector ETV
attr autoWarmupFilter false
attr interpolationmode sample-hold
attr recordingmode vector
attr source "warmup(count(packetEnqueued) - count(packetDequeued))"
attr title "queue length"
vector 79 OpalNodeManager.node[23].wlan.mac.dcf.channelAccess.contention backoffActive:vector ETV
attr autoWarmupFilter false
attr interpolationmode sample-hold
attr recordingmode vector
attr source warmup(count(backoffStarted)-count(backoffStopped))
attr title "backoff active"
vector 80 OpalNodeManager.node[24].wlan.mac.dcf frameSequenceActive:vector ETV
attr autoWarmupFilter false
attr interpolationmode sample-hold
attr recordingmode vector
attr source warmup(count(frameSequenceStarted)-count(frameSequenceFinished))
attr title "frame sequence active"
vector 81 OpalNodeManager.node[24].wlan.mac.dcf.channelAccess.inProgressFrames queueLength:vector ETV
attr autoWarmupFilter false
attr interpolationmode sample-hold
attr recordingmode vector
attr source "warmup(count(packetEnqueued) - count(packetDequeued))"
attr title "queue length"
vector 82 OpalNodeManager.node[24].wlan.mac.dcf.channelAccess.contention backoffActive:vector ETV
attr autoWarmupFilter false
attr interpolationmode sample-hold
attr recordingmode vector
attr source warmup(count(backoffStarted)-count(backoffStopped))
attr title "backoff active"
vector 83 OpalNodeManager.node[25].wlan.mac.dcf frameSequenceActive:vector ETV
attr autoWarmupFilter false
attr interpolationmode sample-hold
attr recordingmode vector
attr source warmup(count(frameSequenceStarted)-count(frameSequenceFinished))
attr title "frame sequence active"
vector 84 OpalNodeManager.node[25].wlan.mac.dcf.channelAccess.inProgressFrames queueLength:vector ETV
attr autoWarmupFilter false
attr interpolationmode sample-hold
attr recordingmode vector
attr source "warmup(count(packetEnqueued) - count(packetDequeued))"
attr title "queue length"
vector 85 OpalNodeManager.node[25].wlan.mac.dcf.channelAccess.contention backoffActive:vector ETV
attr autoWarmupFilter false
attr interpolationmode sample-hold
attr recordingmode vector
attr source warmup(count(backoffStarted)-count(backoffStopped))
attr title "backoff active"
vector 86 OpalNodeManager.node[26].wlan.mac.dcf frameSequenceActive:vector ETV
attr autoWarmupFilter false
attr interpolationmode sample-hold
attr recordingmode vector
attr source warmup(count(frameSequenceStarted)-count(frameSequenceFinished))
attr title "frame sequence active"
vector 87 OpalNodeManager.node[26].wlan.mac.dcf.channelAccess.inProgressFrames queueLength:vector ETV
attr autoWarmupFilter false
attr interpolationmode sample-hold
attr recordingmode vector
attr source "warmup(count(packetEnqueued) - count(packetDequeued))"
attr title "queue length"
vector 88 OpalNodeManager.node[26].wlan.mac.dcf.channelAccess.contention backoffActive:vector ETV
attr autoWarmupFilter false
attr interpolationmode sample-hold
attr recordingmode vector
attr source warmup(count(backoffStarted)-count(backoffStopped))
attr title "backoff active"
vector 89 OpalNodeManager.node[27].wlan.mac.dcf frameSequenceActive:vector ETV
attr autoWarmupFilter false
attr interpolationmode sample-hold
attr recordingmode vector
attr source warmup(count(frameSequenceStarted)-count(frameSequenceFinished))
attr title "frame sequence active"
vector 90 OpalNodeManager.node[27].wlan.mac.dcf.channelAccess.inProgressFrames queueLength:vector ETV
attr autoWarmupFilter false
attr interpolationmode sample-hold
attr recordingmode vector
attr source "warmup(count(packetEnqueued) - count(packetDequeued))"
attr title "queue length"
vector 91 OpalNodeManager.node[27].wlan.mac.dcf.channelAccess.contention backoffActive:vector ETV
attr autoWarmupFilter false
attr interpolationmode sample-hold
attr recordingmode vector
attr source warmup(count(backoffStarted)-count(backoffStopped))
attr title "backoff active"
vector 92 OpalNodeManager.node[28].wlan.mac.dcf frameSequenceActive:vector ETV
attr autoWarmupFilter false
attr interpolationmode sample-hold
attr recordingmode vector
attr source warmup(count(frameSequenceStarted)-count(frameSequenceFinished))
attr title "frame sequence active"
vector 93 OpalNodeManager.node[28].wlan.mac.dcf.channelAccess.inProgressFrames queueLength:vector ETV
attr autoWarmupFilter false
attr interpolationmode sample-hold
attr recordingmode vector
attr source "warmup(count(packetEnqueued) - count(packetDequeued))"
attr title "queue length"
vector 94 OpalNodeManager.node[28].wlan.mac.dcf.channelAccess.contention backoffActive:vector ETV
attr autoWarmupFilter false
attr interpolationmode sample-hold
attr recordingmode vector
attr source warmup(count(backoffStarted)-count(backoffStopped))
attr title "backoff active"
vector 95 OpalNodeManager.node[29].wlan.mac.dcf frameSequenceActive:vector ETV
attr autoWarmupFilter false
attr interpolationmode sample-hold
attr recordingmode vector
attr source warmup(count(frameSequenceStarted)-count(frameSequenceFinished))
attr title "frame sequence active"
vector 96 OpalNodeManager.node[29].wlan.mac.dcf.channelAccess.inProgressFrames queueLength:vector ETV
attr autoWarmupFilter false
attr interpolationmode sample-hold
attr recordingmode vector
attr source "warmup(count(packetEnqueued) - count(packetDequeued))"
attr title "queue length"
vector 97 OpalNodeManager.node[29].wlan.mac.dcf.channelAccess.contention backoffActive:vector ETV
attr autoWarmupFilter false
attr interpolationmode sample-hold
attr recordingmode vector
attr source warmup(count(backoffStarted)-count(backoffStopped))
attr title "backoff active"
vector 98 OpalNodeManager.node[30].wlan.mac.dcf frameSequenceActive:vector ETV
attr autoWarmupFilter false
attr interpolationmode sample-hold
attr recordingmode vector
attr source warmup(count(frameSequenceStarted)-count(frameSequenceFinished))
attr title "frame sequence active"
vector 99 OpalNodeManager.node[30].wlan.mac.dcf.channelAccess.inProgressFrames queueLength:vector ETV
attr autoWarmupFilter false
attr interpolationmode sample-hold
attr recordingmode vector
attr source "warmup(count(packetEnqueued) - count(packetDequeued))"
attr title "queue length"
vector 100 OpalNodeManager.node[30].wlan.mac.dcf.channelAccess.contention backoffActive:vector ETV
attr autoWarmupFilter false
attr interpolationmode sample-hold
attr recordingmode vector
attr source warmup(count(backoffStarted)-count(backoffStopped))
attr title "backoff active"
vector 101 OpalNodeManager.node[31].wlan.mac.dcf frameSequenceActive:vector ETV
attr autoWarmupFilter false
attr interpolationmode sample-hold
attr recordingmode vector
attr source warmup(count(frameSequenceStarted)-count(frameSequenceFinished))
attr title "frame sequence active"